Title="Geschw, Schub und Hoehe pro Flugposition"
Variables="X","Y","altitude [m]","TAS [m/s]","thrust [kN]","time [s]",  "N1","Uprimary [m/s]","Usecondary [m/s]","gear [-]","spoiler [-]","flap [°]","slat [°]"
ZONE I =   317 F=POINT
      -1484.100000000000          0.000000000000        516.900000000000         74.800000000000         30.845000000000          0.100000000000         50.831019719198        128.170906659782        151.565669914012          1.000000000000          0.000000000000         39.900000000000         26.900000000000
      -1474.700000000000          0.000000000000        516.300000000000         74.800000000000         30.845000000000          0.200000000000         50.830087461436        128.166740463562        151.562912750318          1.000000000000          0.000000000000         39.900000000000         26.900000000000
      -1465.300000000000          0.000000000000        515.800000000000         74.800000000000         30.845000000000          0.400000000000         50.829310577981        128.163268649081        151.560615109402          1.000000000000          0.000000000000         39.900000000000         26.900000000000
      -1456.000000000000          0.000000000000        515.200000000000         74.800000000000         30.845000000000          0.500000000000         50.828378315453        128.159102490546        151.557857934898          1.000000000000          0.000000000000         39.900000000000         26.900000000000
      -1446.700000000000          0.000000000000        514.700000000000         74.800000000000         30.845000000000          0.600000000000         50.827601428026        128.155630707469        151.555560284973          1.000000000000          0.000000000000         39.900000000000         26.900000000000
      -1437.300000000000          0.000000000000        514.100000000000         74.800000000000         30.845000000000          0.800000000000         50.826669160732        128.151464586618        151.552803099659          1.000000000000          0.000000000000         39.900000000000         26.900000000000
      -1428.000000000000          0.000000000000        513.500000000000         74.800000000000         30.845000000000          0.900000000000         50.825736890837        128.147298486321        151.550045908448          1.000000000000          0.000000000000         39.900000000000         26.900000000000
      -1418.700000000000          0.000000000000        513.000000000000         74.800000000000         30.845000000000          1.000000000000         50.824959997273        128.143826751773        151.547748244602          1.000000000000          0.000000000000         39.900000000000         26.900000000000
      -1409.400000000000          0.000000000000        512.500000000000         74.800000000000         30.845000000000          1.100000000000         50.824183101904        128.140355031499        151.545450576661          1.000000000000          0.000000000000         39.900000000000         26.900000000000
      -1400.100000000000          0.000000000000        511.900000000000         74.800000000000         30.845000000000          1.200000000000         50.823250825078        128.136188986009        151.542693369728          1.000000000000          0.000000000000         39.900000000000         26.900000000000
      -1390.700000000000          0.000000000000        511.400000000000         74.800000000000         30.845000000000          1.400000000000         50.822473925738        128.132717297134        151.540395692780          1.000000000000          0.000000000000         39.900000000000         26.900000000000
      -1381.400000000000          0.000000000000        510.800000000000         74.800000000000         30.845000000000          1.500000000000         50.821541644146        128.128551289321        151.537638475038          1.000000000000          0.000000000000         39.900000000000         26.900000000000
      -1372.100000000000          0.000000000000        510.200000000000         74.800000000000         30.845000000000          1.600000000000         50.820609359956        128.124385302060        151.534881251401          1.000000000000          0.000000000000         39.900000000000         26.900000000000
      -1362.700000000000          0.000000000000        509.700000000000         74.800000000000         30.845000000000          1.800000000000         50.819832454479        128.120913661706        151.532583560533          1.000000000000          0.000000000000         39.900000000000         26.900000000000
      -1353.300000000000          0.000000000000        509.200000000000         74.800000000000         30.845000000000          1.900000000000         50.819055547197        128.117442035622        151.530285865572          1.000000000000          0.000000000000         39.900000000000         26.900000000000
      -1344.000000000000          0.000000000000        508.600000000000         74.800000000000         30.845000000000          2.000000000000         50.818123256076        128.113276103159        151.527528626214          1.000000000000          0.000000000000         39.900000000000         26.900000000000
      -1334.700000000000          0.000000000000        508.000000000000         74.800000000000         30.845000000000          2.100000000000         50.817190962356        128.109110191243        151.524771380962          1.000000000000          0.000000000000         39.900000000000         26.900000000000
      -1325.300000000000          0.000000000000        507.500000000000         74.800000000000         30.845000000000          2.200000000000         50.816414048938        128.105638613676        151.522473672082          1.000000000000          0.000000000000         39.900000000000         26.900000000000
      -1316.000000000000          0.000000000000        506.900000000000         74.800000000000         30.845000000000          2.400000000000         50.815481750453        128.101472739431        151.519716416023          1.000000000000          0.000000000000         39.900000000000         26.900000000000
      -1306.700000000000          0.000000000000        506.300000000000         74.800000000000         30.845000000000          2.500000000000         50.814549449370        128.097306885732        151.516959154070          1.000000000000          0.000000000000         39.900000000000         26.900000000000
      -1297.400000000000          0.000000000000        505.800000000000         74.800000000000         30.845000000000          2.600000000000         50.813772529816        128.093835356677        151.514661431273          1.000000000000          0.000000000000         39.900000000000         26.900000000000
      -1288.100000000000          0.000000000000        505.200000000000         74.800000000000         30.845000000000          2.800000000000         50.812840223969        128.089669540645        151.511904158513          1.000000000000          0.000000000000         39.900000000000         26.900000000000
      -1278.700000000000          0.000000000000        504.700000000000         74.800000000000         30.845000000000          2.900000000000         50.812063300445        128.086198042978        151.509606426711          1.000000000000          0.000000000000         39.900000000000         26.900000000000
      -1269.400000000000          0.000000000000        504.100000000000         74.800000000000         30.845000000000          3.000000000000         50.811130989834        128.082032264610        151.506849143146          1.000000000000          0.000000000000         39.900000000000         26.900000000000
      -1260.100000000000          0.000000000000        503.600000000000         74.800000000000         30.845000000000          3.100000000000         50.810354062341        128.078560798330        151.504551402340          1.000000000000          0.000000000000         39.900000000000         26.900000000000
      -1250.700000000000          0.000000000000        503.000000000000         74.800000000000         30.845000000000          3.200000000000         50.809421746966        128.074395057625        151.501794107970          1.000000000000          0.000000000000         39.900000000000         26.900000000000
      -1241.300000000000          0.000000000000        502.400000000000         74.800000000000         30.845000000000          3.400000000000         50.808489428994        128.070229337462        151.499036807707          1.000000000000          0.000000000000         39.900000000000         26.900000000000
      -1232.000000000000          0.000000000000        501.900000000000         74.800000000000         30.845000000000          3.500000000000         50.807712495365        128.066757919685        151.496739052986          1.000000000000          0.000000000000         39.900000000000         26.900000000000
      -1222.700000000000          0.000000000000        501.300000000000         74.800000000000         30.845000000000          3.600000000000         50.806780172629        128.062592237181        151.493981741918          1.000000000000          0.000000000000         39.900000000000         26.900000000000
      -1213.300000000000          0.000000000000        500.800000000000         74.800000000000         30.845000000000          3.800000000000         50.806003235032        128.059120850786        151.491683978194          1.000000000000          0.000000000000         39.900000000000         26.900000000000
      -1204.000000000000          0.000000000000        500.200000000000         74.800000000000         30.845000000000          3.900000000000         50.805070907533        128.054955205939        151.488926656323          1.000000000000          0.000000000000         39.900000000000         26.900000000000
      -1194.700000000000          0.000000000000        499.700000000000         74.800000000000         30.845000000000          4.000000000000         50.804293965966        128.051483850924        151.486628883595          1.000000000000          0.000000000000         39.900000000000         26.900000000000
      -1185.400000000000          0.000000000000        499.100000000000         74.800000000000         30.845000000000          4.100000000000         50.803361633705        128.047318243732        151.483871550921          1.000000000000          0.000000000000         39.900000000000         26.900000000000
      -1176.100000000000          0.000000000000        498.600000000000         74.800000000000         30.845000000000          4.200000000000         50.802584688169        128.043846920095        151.481573769192          1.000000000000          0.000000000000         39.900000000000         26.900000000000
      -1166.700000000000          0.000000000000        498.100000000000         74.800000000000         30.845000000000          4.400000000000         50.801807740830        128.040375610721        151.479275983370          1.000000000000          0.000000000000         39.900000000000         26.900000000000
      -1157.400000000000          0.000000000000        497.500000000000         74.800000000000         30.845000000000          4.500000000000         50.800875401641        128.036210058297        151.476518634983          1.000000000000          0.000000000000         39.900000000000         26.900000000000
      -1148.100000000000          0.000000000000        496.900000000000         74.800000000000         30.845000000000          4.600000000000         50.799943059855        128.032044526409        151.473761280704          1.000000000000          0.000000000000         39.900000000000         26.900000000000
      -1138.700000000000          0.000000000000        496.400000000000         74.800000000000         30.845000000000          4.800000000000         50.799166106382        128.028573265524        151.471463480971          1.000000000000          0.000000000000         39.900000000000         26.900000000000
      -1129.300000000000          0.000000000000        495.800000000000         74.800000000000         30.845000000000          4.900000000000         50.798233759834        128.024407771285        151.468706115890          1.000000000000          0.000000000000         39.900000000000         26.900000000000
      -1120.000000000000          0.000000000000        495.200000000000         74.800000000000         30.845000000000          5.000000000000         50.797301410688        128.020242297582        151.465948744918          1.000000000000          0.000000000000         39.900000000000         26.900000000000
      -1110.700000000000          0.000000000000        494.600000000000         74.800000000000         30.845000000000          5.100000000000         50.796369058946        128.016076844412        151.463191368055          1.000000000000          0.000000000000         39.900000000000         26.900000000000
      -1101.300000000000          0.000000000000        494.100000000000         74.800000000000         30.845000000000          5.200000000000         50.795592097176        128.012605649123        151.460893549502          1.000000000000          0.000000000000         39.900000000000         26.900000000000
      -1092.000000000000          0.000000000000        493.600000000000         74.800000000000         30.845000000000          5.400000000000         50.794815133603        128.009134468093        151.458595726857          1.000000000000          0.000000000000         39.900000000000         26.900000000000
      -1082.700000000000          0.000000000000        493.000000000000         74.800000000000         30.845000000000          5.500000000000         50.793882774934        128.004969069678        151.455838334284          1.000000000000          0.000000000000         39.900000000000         26.900000000000
      -1073.400000000000          0.000000000000        492.400000000000         74.800000000000         30.845000000000          5.600000000000         50.792950413669        128.000803691796        151.453080935820          1.000000000000          0.000000000000         39.900000000000         26.900000000000
      -1064.100000000000          0.000000000000        491.900000000000         74.800000000000         30.845000000000          5.800000000000         50.792173443963        127.997332559244        151.450783099267          1.000000000000          0.000000000000         39.900000000000         26.900000000000
      -1054.700000000000          0.000000000000        491.400000000000         74.800000000000         30.845000000000          5.900000000000         50.791396472455        127.993861440949        151.448485258623          1.000000000000          0.000000000000         39.900000000000         26.900000000000
      -1045.400000000000          0.000000000000        490.800000000000         74.800000000000         30.845000000000          6.000000000000         50.790464104264        127.989696117815        151.445727844451          1.000000000000          0.000000000000         39.900000000000         26.900000000000
      -1036.100000000000          0.000000000000        490.200000000000         74.800000000000         30.845000000000          6.100000000000         50.789531733477        127.985530815211        151.442970424389          1.000000000000          0.000000000000         39.900000000000         26.900000000000
      -1026.700000000000          0.000000000000        489.700000000000         74.800000000000         30.845000000000          6.200000000000         50.788754755837        127.982059745389        151.440672569837          1.000000000000          0.000000000000         39.900000000000         26.900000000000
      -1017.400000000000          0.000000000000        489.200000000000         74.800000000000         30.845000000000          6.400000000000         50.787977776394        127.978588689823        151.438374711195          1.000000000000          0.000000000000         39.900000000000         26.900000000000
      -1008.000000000000          0.000000000000        488.600000000000         74.800000000000         30.845000000000          6.500000000000         50.787045398682        127.974423441961        151.435617275426          1.000000000000          0.000000000000         39.900000000000         26.900000000000
       -998.700000000000          0.000000000000        488.100000000000         74.800000000000         30.845000000000          6.600000000000         50.786268415273        127.970952417757        151.433319407786          1.000000000000          0.000000000000         39.900000000000         26.900000000000
       -989.400000000000          0.000000000000        487.500000000000         74.800000000000         30.845000000000          6.800000000000         50.785321577925        127.966866072614        151.430518781665          1.000000000000          0.000000000000         39.900000000000         26.900000000000
       -980.000000000000          0.000000000000        486.900000000000         74.800000000000         30.845000000000          6.900000000000         50.784341013144        127.962963713336        151.427617405971          1.000000000000          0.000000000000         39.900000000000         26.900000000000
       -970.700000000000          0.000000000000        486.400000000000         74.800000000000         30.845000000000          7.000000000000         50.783523875712        127.959711710782        151.425199592850          1.000000000000          0.000000000000         39.900000000000         26.900000000000
       -961.400000000000          0.000000000000        485.800000000000         74.800000000000         30.845000000000          7.100000000000         50.782543310658        127.955809263932        151.422298217055          1.000000000000          0.000000000000         39.900000000000         26.900000000000
       -952.000000000000          0.000000000000        485.300000000000         74.800000000000         30.845000000000          7.200000000000         50.781726173000        127.952557188402        151.419880403850          1.000000000000          0.000000000000         39.900000000000         26.900000000000
       -942.700000000000          0.000000000000        484.800000000000         74.800000000000         30.845000000000          7.400000000000         50.780909035238        127.949305079703        151.417462590606          1.000000000000          0.000000000000         39.900000000000         26.900000000000
       -933.400000000000          0.000000000000        484.200000000000         74.800000000000         30.845000000000          7.500000000000         50.779928469788        127.945402505482        151.414561214663          1.000000000000          0.000000000000         39.900000000000         26.900000000000
       -924.000000000000          0.000000000000        483.600000000000         74.800000000000         30.845000000000          7.600000000000         50.778947904189        127.941499883500        151.411659838665          1.000000000000          0.000000000000         39.900000000000         26.900000000000
       -914.700000000000          0.000000000000        483.000000000000         74.800000000000         30.845000000000          7.800000000000         50.777967338441        127.937597213758        151.408758462611          1.000000000000          0.000000000000         39.900000000000         26.900000000000
       -905.400000000000          0.000000000000        482.500000000000         74.800000000000         30.845000000000          7.900000000000         50.777150200205        127.934344952491        151.406340649191          1.000000000000          0.000000000000         39.900000000000         26.900000000000
       -896.000000000000          0.000000000000        481.900000000000         74.800000000000         30.845000000000          8.000000000000         50.776169634185        127.930442195192        151.403439273036          1.000000000000          0.000000000000         39.900000000000         26.900000000000
       -886.700000000000          0.000000000000        481.300000000000         74.800000000000         30.845000000000          8.100000000000         50.775189068016        127.926539390138        151.400537896825          1.000000000000          0.000000000000         39.900000000000         26.900000000000
       -877.400000000000          0.000000000000        480.800000000000         74.800000000000         30.845000000000          8.200000000000         50.774371929429        127.923287016114        151.398120083274          1.000000000000          0.000000000000         39.900000000000         26.900000000000
       -868.000000000000          0.000000000000        480.200000000000         74.800000000000         30.845000000000          8.400000000000         50.773391362988        127.919384123510        151.395218706961          1.000000000000          0.000000000000         39.900000000000         26.900000000000
       -858.700000000000          0.000000000000        479.700000000000         74.800000000000         30.845000000000          8.500000000000         50.772574224173        127.916131676531        151.392800893325          1.000000000000          0.000000000000         39.900000000000         26.900000000000
       -849.400000000000          0.000000000000        479.100000000000         74.800000000000         30.845000000000          8.600000000000         50.771593657460        127.912228696383        151.389899516910          1.000000000000          0.000000000000         39.900000000000         26.900000000000
       -840.000000000000          0.000000000000        478.600000000000         74.800000000000         30.845000000000          8.800000000000         50.770776518418        127.908976176452        151.387481703189          1.000000000000          0.000000000000         39.900000000000         26.900000000000
       -830.700000000000          0.000000000000        478.100000000000         74.800000000000         30.845000000000          8.900000000000         50.769959379273        127.905723623362        151.385063889430          1.000000000000          0.000000000000         39.900000000000         26.900000000000
       -821.400000000000          0.000000000000        477.500000000000         74.800000000000         30.845000000000          9.000000000000         50.768978812164        127.901820515887        151.382162512867          1.000000000000          0.000000000000         39.900000000000         26.900000000000
       -812.000000000000          0.000000000000        476.900000000000         74.800000000000         30.845000000000          9.100000000000         50.767998244905        127.897917360665        151.379261136249          1.000000000000          0.000000000000         39.900000000000         26.900000000000
       -802.700000000000          0.000000000000        476.400000000000         74.800000000000         30.845000000000          9.200000000000         50.767181105409        127.894664694843        151.376843322358          1.000000000000          0.000000000000         39.900000000000         26.900000000000
       -793.400000000000          0.000000000000        475.900000000000         74.800000000000         30.845000000000          9.400000000000         50.766363965811        127.891411995866        151.374425508428          1.000000000000          0.000000000000         39.900000000000         26.900000000000
       -784.000000000000          0.000000000000        475.300000000000         74.800000000000         30.845000000000          9.500000000000         50.765383398156        127.887508713330        151.371524131662          1.000000000000          0.000000000000         39.900000000000         26.900000000000
       -774.700000000000          0.000000000000        474.800000000000         74.800000000000         30.845000000000          9.600000000000         50.764566258330        127.884255941414        151.369106317647          1.000000000000          0.000000000000         39.900000000000         26.900000000000
       -765.400000000000          0.000000000000        474.200000000000         74.800000000000         30.845000000000          9.800000000000         50.763585690403        127.880352571355        151.366204940778          1.000000000000          0.000000000000         39.900000000000         26.900000000000
       -756.000000000000          0.000000000000        473.700000000000         74.800000000000         30.845000000000          9.900000000000         50.762768550350        127.877099726506        151.363787126679          1.000000000000          0.000000000000         39.900000000000         26.900000000000
       -746.700000000000          0.000000000000        473.100000000000         74.800000000000         30.845000000000         10.000000000000         50.761787982150        127.873196268929        151.360885749708          1.000000000000          0.000000000000         39.900000000000         26.900000000000
       -737.400000000000          0.000000000000        472.500000000000         74.800000000000         30.845000000000         10.100000000000         50.760807413801        127.869292763616        151.357984372681          1.000000000000          0.000000000000         39.900000000000         26.900000000000
       -728.000000000000          0.000000000000        472.000000000000         74.800000000000         30.845000000000         10.200000000000         50.759990273397        127.866039806059        151.355566558450          1.000000000000          0.000000000000         39.900000000000         26.900000000000
       -718.600000000000          0.000000000000        471.400000000000         74.800000000000         30.845000000000         10.400000000000         50.759009704776        127.862136213235        151.352665181321          1.000000000000          0.000000000000         39.900000000000         26.900000000000
       -709.300000000000          0.000000000000        470.800000000000         74.800000000000         30.845000000000         10.500000000000         50.758029136007        127.858232572680        151.349763804136          1.000000000000          0.000000000000         39.900000000000         26.900000000000
       -700.000000000000          0.000000000000        470.200000000000         74.800000000000         30.845000000000         10.600000000000         50.757048567088        127.854328884395        151.346862426895          1.000000000000          0.000000000000         39.900000000000         26.900000000000
       -690.600000000000          0.000000000000        469.700000000000         74.800000000000         30.845000000000         10.800000000000         50.756231426210        127.851075774365        151.344444612486          1.000000000000          0.000000000000         39.900000000000         26.900000000000
       -681.300000000000          0.000000000000        469.200000000000         74.800000000000         30.845000000000         10.900000000000         50.755414285228        127.847822631191        151.342026798037          1.000000000000          0.000000000000         39.900000000000         26.900000000000
       -672.000000000000          0.000000000000        468.600000000000         74.800000000000         30.845000000000         11.000000000000         50.754433715913        127.843918815633        151.339125420647          1.000000000000          0.000000000000         39.900000000000         26.900000000000
       -662.700000000000          0.000000000000        468.100000000000         74.800000000000         30.845000000000         11.100000000000         50.753616574704        127.840665599545        151.336707606113          1.000000000000          0.000000000000         39.900000000000         26.900000000000
       -653.400000000000          0.000000000000        467.500000000000         74.800000000000         30.845000000000         11.200000000000         50.752636005117        127.836761696493        151.333806228621          1.000000000000          0.000000000000         39.900000000000         26.900000000000
       -644.000000000000          0.000000000000        466.900000000000         74.800000000000         30.845000000000         11.400000000000         50.751655435381        127.832857745719        151.330904851073          1.000000000000          0.000000000000         39.900000000000         26.900000000000
       -634.700000000000          0.000000000000        466.400000000000         74.800000000000         30.845000000000         11.500000000000         50.750838293821        127.829604416953        151.328487036407          1.000000000000          0.000000000000         39.900000000000         26.900000000000
       -625.400000000000          0.000000000000        465.800000000000         74.800000000000         30.845000000000         11.600000000000         50.749857723812        127.825700378692        151.325585658756          1.000000000000          0.000000000000         39.900000000000         26.900000000000
       -616.000000000000          0.000000000000        465.300000000000         74.800000000000         30.845000000000         11.800000000000         50.749040582025        127.822446977023        151.323167844004          1.000000000000          0.000000000000         39.900000000000         26.900000000000
       -606.600000000000          0.000000000000        464.800000000000         74.800000000000         30.845000000000         11.900000000000         50.748223440135        127.819193542217        151.320750029213          1.000000000000          0.000000000000         39.900000000000         26.900000000000